REMARK SMILES COc1ccc2[nH]c3c(c(C)c(C)c4c3c(-c3ccccc3)cc(=O)n4C)c2c1
REMARK SMILES IDX 27 1 26 2 24 3 25 4 23 5 16 6 15 7 14 8 12 9 10 10 9 11 8 12
REMARK SMILES IDX 7 13 6 14 28 15 29 16 3 17 4 18 5 19 11 20 13 21 17 23 18 24
REMARK SMILES IDX 22 25 19 26 21 27 20 28 2 29 1 30
REMARK H PARENT 7 22
ROOT
ATOM      1  C   UNL     1      -3.236  -3.734  -1.026  1.00  0.00     0.153 C 
ATOM      2  N   UNL     1      -3.005  -2.394  -0.514  1.00  0.00    -0.311 N 
ATOM      3  C   UNL     1      -4.101  -1.545  -0.563  1.00  0.00     0.251 A 
ATOM      4  O   UNL     1      -5.254  -1.905  -0.800  1.00  0.00    -0.269 OA
ATOM      5  C   UNL     1      -3.865  -0.112  -0.331  1.00  0.00     0.081 A 
ATOM      6  C   UNL     1      -2.639   0.409  -0.181  1.00  0.00    -0.001 A 
ATOM      7  C   UNL     1      -1.486  -0.518  -0.174  1.00  0.00     0.031 A 
ATOM      8  C   UNL     1      -1.678  -1.921  -0.205  1.00  0.00     0.057 A 
ATOM      9  C   UNL     1      -0.573  -2.775   0.039  1.00  0.00    -0.023 A 
ATOM     10  C   UNL     1       0.764  -2.264   0.011  1.00  0.00    -0.036 A 
ATOM     11  C   UNL     1       0.958  -0.856  -0.037  1.00  0.00     0.011 A 
ATOM     12  C   UNL     1      -0.163  -0.023  -0.115  1.00  0.00     0.057 A 
ATOM     13  N   UNL     1       0.321   1.268  -0.153  1.00  0.00    -0.354 N 
ATOM     14  C   UNL     1       1.686   1.311  -0.063  1.00  0.00     0.047 A 
ATOM     15  C   UNL     1       2.125  -0.003   0.022  1.00  0.00     0.011 A 
ATOM     16  C   UNL     1       3.517  -0.213   0.156  1.00  0.00     0.057 A 
ATOM     17  C   UNL     1       4.407   0.871   0.178  1.00  0.00     0.119 A 
ATOM     18  C   UNL     1       3.919   2.171   0.073  1.00  0.00     0.048 A 
ATOM     19  C   UNL     1       2.547   2.414  -0.047  1.00  0.00     0.030 A 
ATOM     20  C   UNL     1       1.942  -3.209   0.071  1.00  0.00     0.045 C 
ATOM     21  C   UNL     1      -0.754  -4.225   0.436  1.00  0.00     0.047 C 
ATOM     22  H   UNL     1      -0.249   2.095  -0.236  1.00  0.00     0.167 HD
ENDROOT
BRANCH   6  23
ATOM     23  C   UNL     1      -2.637   1.867   0.054  1.00  0.00    -0.017 A 
ATOM     24  C   UNL     1      -2.784   2.760  -1.016  1.00  0.00     0.009 A 
ATOM     25  C   UNL     1      -2.476   2.369   1.353  1.00  0.00     0.009 A 
ATOM     26  C   UNL     1      -2.759   4.136  -0.790  1.00  0.00     0.001 A 
ATOM     27  C   UNL     1      -2.450   3.746   1.575  1.00  0.00     0.001 A 
ATOM     28  C   UNL     1      -2.590   4.628   0.504  1.00  0.00     0.000 A 
ENDBRANCH   6  23
BRANCH  17  29
ATOM     29  O   UNL     1       5.724   0.517   0.309  1.00  0.00    -0.497 OA
ATOM     30  C   UNL     1       6.676   1.572   0.334  1.00  0.00     0.278 C 
ENDBRANCH  17  29
TORSDOF 2
